 <VTKFile type="UnstructuredGrid" version="0.1" byte_order="BigEndian">
 <UnstructuredGrid>
 <Piece NumberOfPoints="         790 " NumberOfCells="         702 ">
 <Points>
 <DataArray type="Float64" NumberOfComponents="3" Format="ascii">
   0.0000000000000000        0.0000000000000000        0.00000000    
   1.0000000000000000        0.0000000000000000        0.00000000    
   1.0000000000000000       0.25000000000000000        0.00000000    
   0.0000000000000000       0.25000000000000000        0.00000000    
  0.50000000000000000       0.25000000000000000        0.00000000    
  0.50000000000000000        0.0000000000000000        0.00000000    
   1.2820512820488560E-002   0.0000000000000000        0.00000000    
   2.5641025640973911E-002   0.0000000000000000        0.00000000    
   3.8461538461463197E-002   0.0000000000000000        0.00000000    
   5.1282051281956377E-002   0.0000000000000000        0.00000000    
   6.4102564102446538E-002   0.0000000000000000        0.00000000    
   7.6923076922922731E-002   0.0000000000000000        0.00000000    
   8.9743589743398133E-002   0.0000000000000000        0.00000000    
  0.10256410256387349        0.0000000000000000        0.00000000    
  0.11538461538434890        0.0000000000000000        0.00000000    
  0.12820512820482430        0.0000000000000000        0.00000000    
  0.14102564102529969        0.0000000000000000        0.00000000    
  0.15384615384577510        0.0000000000000000        0.00000000    
  0.16666666666625049        0.0000000000000000        0.00000000    
  0.17948717948672591        0.0000000000000000        0.00000000    
  0.19230769230720129        0.0000000000000000        0.00000000    
  0.20512820512767671        0.0000000000000000        0.00000000    
  0.21794871794815210        0.0000000000000000        0.00000000    
  0.23076923076862749        0.0000000000000000        0.00000000    
  0.24358974358910290        0.0000000000000000        0.00000000    
  0.25641025640961390        0.0000000000000000        0.00000000    
  0.26923076923016059        0.0000000000000000        0.00000000    
  0.28205128205070717        0.0000000000000000        0.00000000    
  0.29487179487125381        0.0000000000000000        0.00000000    
  0.30769230769180039        0.0000000000000000        0.00000000    
  0.32051282051234709        0.0000000000000000        0.00000000    
  0.33333333333289372        0.0000000000000000        0.00000000    
  0.34615384615344030        0.0000000000000000        0.00000000    
  0.35897435897398700        0.0000000000000000        0.00000000    
  0.37179487179453358        0.0000000000000000        0.00000000    
  0.38461538461508032        0.0000000000000000        0.00000000    
  0.39743589743562691        0.0000000000000000        0.00000000    
  0.41025641025617349        0.0000000000000000        0.00000000    
  0.42307692307672018        0.0000000000000000        0.00000000    
  0.43589743589726682        0.0000000000000000        0.00000000    
  0.44871794871781340        0.0000000000000000        0.00000000    
  0.46153846153836009        0.0000000000000000        0.00000000    
  0.47435897435890673        0.0000000000000000        0.00000000    
  0.48717948717945342        0.0000000000000000        0.00000000    
  0.51282051282051277        0.0000000000000000        0.00000000    
  0.52564102564102566        0.0000000000000000        0.00000000    
  0.53846153846153844        0.0000000000000000        0.00000000    
  0.55128205128205132        0.0000000000000000        0.00000000    
  0.56410256410256410        0.0000000000000000        0.00000000    
  0.57692307692307687        0.0000000000000000        0.00000000    
  0.58974358974358976        0.0000000000000000        0.00000000    
  0.60256410256410253        0.0000000000000000        0.00000000    
  0.61538461538461542        0.0000000000000000        0.00000000    
  0.62820512820512819        0.0000000000000000        0.00000000    
  0.64102564102564097        0.0000000000000000        0.00000000    
  0.65384615384615385        0.0000000000000000        0.00000000    
  0.66666666666666663        0.0000000000000000        0.00000000    
  0.67948717948717952        0.0000000000000000        0.00000000    
  0.69230769230769229        0.0000000000000000        0.00000000    
  0.70512820512820507        0.0000000000000000        0.00000000    
  0.71794871794871795        0.0000000000000000        0.00000000    
  0.73076923076923073        0.0000000000000000        0.00000000    
  0.74358974358974361        0.0000000000000000        0.00000000    
  0.75641025641025639        0.0000000000000000        0.00000000    
  0.76923076923076916        0.0000000000000000        0.00000000    
  0.78205128205128205        0.0000000000000000        0.00000000    
  0.79487179487179493        0.0000000000000000        0.00000000    
  0.80769230769230771        0.0000000000000000        0.00000000    
  0.82051282051282048        0.0000000000000000        0.00000000    
  0.83333333333333326        0.0000000000000000        0.00000000    
  0.84615384615384615        0.0000000000000000        0.00000000    
  0.85897435897435903        0.0000000000000000        0.00000000    
  0.87179487179487181        0.0000000000000000        0.00000000    
  0.88461538461538458        0.0000000000000000        0.00000000    
  0.89743589743589736        0.0000000000000000        0.00000000    
  0.91025641025641024        0.0000000000000000        0.00000000    
  0.92307692307692313        0.0000000000000000        0.00000000    
  0.93589743589743590        0.0000000000000000        0.00000000    
  0.94871794871794868        0.0000000000000000        0.00000000    
  0.96153846153846145        0.0000000000000000        0.00000000    
  0.97435897435897434        0.0000000000000000        0.00000000    
  0.98717948717948723        0.0000000000000000        0.00000000    
   1.0000000000000000        2.7777777777727060E-002   0.00000000    
   1.0000000000000000        5.5555555555428571E-002   0.00000000    
   1.0000000000000000        8.3333333333125259E-002   0.00000000    
   1.0000000000000000       0.11111111111082200        0.00000000    
   1.0000000000000000       0.13888888888859580        0.00000000    
   1.0000000000000000       0.16666666666644689        0.00000000    
   1.0000000000000000       0.19444444444429790        0.00000000    
   1.0000000000000000       0.22222222222214899        0.00000000    
  0.98717948717948723       0.25000000000000000        0.00000000    
  0.97435897435897434       0.25000000000000000        0.00000000    
  0.96153846153846156       0.25000000000000000        0.00000000    
  0.94871794871794868       0.25000000000000000        0.00000000    
  0.93589743589743590       0.25000000000000000        0.00000000    
  0.92307692307692313       0.25000000000000000        0.00000000    
  0.91025641025641024       0.25000000000000000        0.00000000    
  0.89743589743589747       0.25000000000000000        0.00000000    
  0.88461538461538458       0.25000000000000000        0.00000000    
  0.87179487179487181       0.25000000000000000        0.00000000    
  0.85897435897435903       0.25000000000000000        0.00000000    
  0.84615384615384615       0.25000000000000000        0.00000000    
  0.83333333333333337       0.25000000000000000        0.00000000    
  0.82051282051282048       0.25000000000000000        0.00000000    
  0.80769230769230771       0.25000000000000000        0.00000000    
  0.79487179487179493       0.25000000000000000        0.00000000    
  0.78205128205128205       0.25000000000000000        0.00000000    
  0.76923076923076927       0.25000000000000000        0.00000000    
  0.75641025641025639       0.25000000000000000        0.00000000    
  0.74358974358974361       0.25000000000000000        0.00000000    
  0.73076923076923084       0.25000000000000000        0.00000000    
  0.71794871794871795       0.25000000000000000        0.00000000    
  0.70512820512820507       0.25000000000000000        0.00000000    
  0.69230769230769229       0.25000000000000000        0.00000000    
  0.67948717948717952       0.25000000000000000        0.00000000    
  0.66666666666666674       0.25000000000000000        0.00000000    
  0.65384615384615385       0.25000000000000000        0.00000000    
  0.64102564102564097       0.25000000000000000        0.00000000    
  0.62820512820512819       0.25000000000000000        0.00000000    
  0.61538461538461542       0.25000000000000000        0.00000000    
  0.60256410256410264       0.25000000000000000        0.00000000    
  0.58974358974358976       0.25000000000000000        0.00000000    
  0.57692307692307687       0.25000000000000000        0.00000000    
  0.56410256410256410       0.25000000000000000        0.00000000    
  0.55128205128205132       0.25000000000000000        0.00000000    
  0.53846153846153855       0.25000000000000000        0.00000000    
  0.52564102564102566       0.25000000000000000        0.00000000    
  0.51282051282051277       0.25000000000000000        0.00000000    
  0.48717948717943382       0.25000000000000000        0.00000000    
  0.47435897435886759       0.25000000000000000        0.00000000    
  0.46153846153830141       0.25000000000000000        0.00000000    
  0.44871794871773518       0.25000000000000000        0.00000000    
  0.43589743589719321       0.25000000000000000        0.00000000    
  0.42307692307676292       0.25000000000000000        0.00000000    
  0.41025641025633908       0.25000000000000000        0.00000000    
  0.39743589743591518       0.25000000000000000        0.00000000    
  0.38461538461549138       0.25000000000000000        0.00000000    
  0.37179487179506748       0.25000000000000000        0.00000000    
  0.35897435897464358       0.25000000000000000        0.00000000    
[...]
 <CellData Scalars="scalars">
 <DataArray type="Float64" Name="rho" format="ascii">
  0.99999999999950995     
  0.99999999999557054     
  0.99999999995991173     
  0.99999999966259401     
  0.99999999736125056     
  0.99999998089884523     
  0.99999987255120404     
  0.99999921990257445     
  0.99999564409228237     
  0.99997795746689078     
  0.99989971082713425     
  0.99959367456487580     
  0.99855099135078373     
  0.99551279088681421     
  0.98810368864410925     
  0.97331614845834358     
  0.94955003958464090     
  0.91870615737245886     
  0.88515670539096580     
  0.85230003106334618     
  0.82118305938988767     
  0.79174309382096053     
  0.76384831268242692     
  0.73739390589586984     
  0.71223139302043381     
  0.68821013763296390     
  0.66523037462227175     
  0.64324116969353184     
  0.62220805310843941     
  0.60210910767411996     
  0.58294367323804541     
  0.56472243672287614     
  0.54746678719852715     
  0.53121076787626975     
  0.51599651166611393     
  0.50187436641998917     
  0.48889872575699006     
  0.47712371865825270     
  0.46659656712007574     
  0.99999999999951350     
  0.99999999999556810     
  0.99999999995990807     
  0.99999999966259545     
  0.99999999736126999     
  0.99999998089883080     
  0.99999987255118461     
  0.99999921990259577     
  0.99999564409230624     
  0.99997795746684837     
  0.99989971082712314     
  0.99959367456489234     
  0.99855099135077097     
  0.99551279088678801     
  0.98810368864413389     
  0.97331614845847081     
  0.94955003958498574     
  0.91870615737307193     
  0.88515670539160063     
  0.85230003106387175     
  0.82118305939037262     
  0.79174309382134067     
  0.76384831268264075     
  0.73739390589600362     
  0.71223139302052607     
  0.68821013763308203     
  0.66523037462236090     
  0.64324116969358025     
  0.62220805310845240     
  0.60210910767409254     
  0.58294367323803753     
  0.56472243672283662     
  0.54746678719845643     
  0.53121076787624377     
  0.51599651166610838     
  0.50187436642000149     
  0.48889872575702276     
  0.47712371865830316     
  0.46659656712015385     
  0.99999999999951350     
  0.99999999999556732     
  0.99999999995991062     
  0.99999999966258868     
  0.99999999736126888     
  0.99999998089884257     
  0.99999987255117717     
  0.99999921990258878     
  0.99999564409230257     
  0.99997795746686924     
  0.99989971082711882     
  0.99959367456493120     
  0.99855099135075265     
  0.99551279088678613     
  0.98810368864423959     
  0.97331614845870207     
  0.94955003958524242     
  0.91870615737337413     
  0.88515670539200586     
  0.85230003106439478     
  0.82118305939086744     
  0.79174309382178520     
  0.76384831268310172     
  0.73739390589639342     
  0.71223139302092142     
  0.68821013763339889     
  0.66523037462266266     
  0.64324116969381528     
  0.62220805310866656     
  0.60210910767429093     
  0.58294367323820528     
  0.56472243672298661     
  0.54746678719860464     
  0.53121076787630261     
  0.51599651166611205     
  0.50187436641999650     
  0.48889872575699894     
  0.47712371865826425     
  0.46659656712008557     
  0.99999999999951195     
  0.99999999999556866     
  0.99999999995991051     
  0.99999999966259190     
  0.99999999736125811     
  0.99999998089884734     
  0.99999987255118905     
  0.99999921990259066     
  0.99999564409229225     
  0.99997795746685492     
  0.99989971082713591     
  0.99959367456494774     
  0.99855099135079162     
  0.99551279088680311     
  0.98810368864427811     
  0.97331614845893688     
  0.94955003958558648     
  0.91870615737380745     
  0.88515670539247160     
  0.85230003106483088     
  0.82118305939119263     
  0.79174309382207531     
  0.76384831268335052     
  0.73739390589663489     
  0.71223139302111005     
  0.68821013763355532     
  0.66523037462278367     
  0.64324116969390388     
  0.62220805310873883     
  0.60210910767436221     
  0.58294367323823781     
  0.56472243672301004     
  0.54746678719859776     
  0.53121076787629851     
  0.51599651166612048     
  0.50187436641999195     
  0.48889872575699056     
  0.47712371865825637     
  0.46659656712009662     
  0.99999999999951239     
  0.99999999999556688     
  0.99999999995990918     
  0.99999999966259923     
  0.99999999736127176     
  0.99999998089883069     
  0.99999987255118683     
  0.99999921990259588     
  0.99999564409229724     
  0.99997795746684126     
  0.99989971082713558     
  0.99959367456489978     
  0.99855099135080194     
  0.99551279088693934     
  0.98810368864445508     
  0.97331614845908265     
  0.94955003958592465     
  0.91870615737426864     
  0.88515670539292002     
  0.85230003106524144     
  0.82118305939160263     
  0.79174309382244057     
  0.76384831268363229     
  0.73739390589693421     
  0.71223139302138061     
  0.68821013763374894     
  0.66523037462297196     
  0.64324116969408185     
  0.62220805310888339     
  0.60210910767446046     
  0.58294367323832008     
  0.56472243672305411     
  0.54746678719862085     
  0.53121076787631161     
  0.51599651166610194     
  0.50187436641996319     
  0.48889872575697818     
  0.47712371865824693     
  0.46659656712008046     
  0.99999999999951261     
  0.99999999999556233     
  0.99999999995991673     
  0.99999999966259812     
  0.99999999736127210     
  0.99999998089883257     
  0.99999987255117884     
  0.99999921990259411     
  0.99999564409230079     
  0.99997795746684714     
  0.99989971082712636     
  0.99959367456491577     
  0.99855099135080461     
  0.99551279088693656     
  0.98810368864450759     
  0.97331614845928860     
  0.94955003958619810     
  0.91870615737469141     
  0.88515670539342173     
  0.85230003106576391     
  0.82118305939199454     
  0.79174309382276742     
  0.76384831268392173     
  0.73739390589718057     
  0.71223139302159522     
  0.68821013763397398     
  0.66523037462314694     
  0.64324116969423706     
  0.62220805310899630     
  0.60210910767456605     
  0.58294367323842433     
  0.56472243672312528     
  0.54746678719863617     
  0.53121076787630239     
  0.51599651166609095     
  0.50187436641995964     
  0.48889872575696663     
  0.47712371865824210     
  0.46659656712008202     
  0.99999999999951461     
  0.99999999999556399     
  0.99999999995991906     
  0.99999999966258746     
  0.99999999736125911     
  0.99999998089884468     
  0.99999987255119160     
  0.99999921990258300     
  0.99999564409229647     
  0.99997795746685969     
  0.99989971082713791     
  0.99959367456493053     
  0.99855099135082215     
  0.99551279088697853     
  0.98810368864457832     
  0.97331614845951075     
  0.94955003958657525     
  0.91870615737504224     
  0.88515670539377300     
  0.85230003106616925     
  0.82118305939243441     
  0.79174309382316332     
  0.76384831268429954     
  0.73739390589746090     
  0.71223139302185146     
  0.68821013763420980     
  0.66523037462334489     
  0.64324116969442136     
  0.62220805310917005     
  0.60210910767467851     
  0.58294367323846741     
  0.56472243672314826     
  0.54746678719867736     
  0.53121076787634103     
  0.51599651166611871     
  0.50187436641997918     
  0.48889872575698357     
  0.47712371865824627     
  0.46659656712007874     
  0.99999999999951394     
  0.99999999999556410     
  0.99999999995991418     
  0.99999999966258379     
  0.99999999736126077     
  0.99999998089883946     
  0.99999987255118106     
  0.99999921990261709     
  0.99999564409230546     
  0.99997795746682849     
  0.99989971082713236     
  0.99959367456494097     
  0.99855099135083170     
  0.99551279088697364     
  0.98810368864460363     
  0.97331614845968917     
  0.94955003958688144     
  0.91870615737552908     
  0.88515670539432278     
  0.85230003106664731     
  0.82118305939284508     
  0.79174309382357067     
  0.76384831268467768     
  0.73739390589778042     
  0.71223139302213312     
  0.68821013763442895     
  0.66523037462349355     
  0.64324116969450940     
  0.62220805310921379     
  0.60210910767473047     
  0.58294367323850482     
  0.56472243672318756     
  0.54746678719869213     
  0.53121076787634136     
  0.51599651166610294     
  0.50187436641994199     
  0.48889872575695070     
  0.47712371865822317     
  0.46659656712006314     
  0.99999999999951461     
  0.99999999999555678     
  0.99999999995990629     
  0.99999999966258746     
  0.99999999736127021     
  0.99999998089881903     
  0.99999987255120615     
  0.99999921990261198     
  0.99999564409231279     
  0.99997795746686369     
  0.99989971082713425     
  0.99959367456494364     
  0.99855099135087277     
  0.99551279088695588     
  0.98810368864471931     
  0.97331614845987569     
  0.94955003958726647     
  0.91870615737603789     
  0.88515670539489744     
  0.85230003106722330     
  0.82118305939334602     
  0.79174309382392039     
  0.76384831268494546     
  0.73739390589801879     
  0.71223139302234528     
  0.68821013763459016     
  0.66523037462366397     
  0.64324116969467049     
  0.62220805310934335     
  0.60210910767482295     
  0.58294367323857144     
  0.56472243672322064     
  0.54746678719870023     
  0.53121076787633015     
  0.51599651166607807     
  0.50187436641993266     
  0.48889872575694598     
  0.47712371865821324     
  0.46659656712005870     
  0.45734949561889460     
  0.44939068237788049     
  0.44269548559597433     
  0.43719929025114423     
  0.43279236419221306     
  0.42931590491341381     
  0.42655712566336373     
  0.42424152557842859     
  0.42202398421995957     
  0.41948602627333381     
  0.41615094336960901     
  0.41152733259476498     
  0.40518284628143958     
  0.39683556103648243     
  0.38643713799920271     
  0.37421805155377036     
  0.36067446429000105     
  0.34649526605341213     
  0.33244771366512177     
  0.31925248432778036     
  0.30747952983024707     
  0.29748612458346935     
  0.28940379400191701     
  0.28316875389546953     
  0.27858168176169557     
  0.27536568948398144     
  0.27317557749595656     
  0.27159213848197611     
  0.27039205574724112     
  0.27034387888637346     
  0.27312740986122508     
  0.27617232523275620     
  0.26279191374847888     
  0.21307799104494313     
  0.15368581822198590     
  0.12877384714588624     
  0.12520657372546212     
  0.12500627545527751     
  0.12500016328723301     
  0.45734949561889743     
  0.44939068237787466     
  0.44269548559597094     
  0.43719929025114479     
  0.43279236419221195     
  0.42931590491341565     
  0.42655712566336645     
  0.42424152557843575     
  0.42202398421996523     
  0.41948602627334058     
  0.41615094336962344     
  0.41152733259477586     
  0.40518284628145357     
  0.39683556103649786     
  0.38643713799921725     
  0.37421805155378896     
  0.36067446429002076     
  0.34649526605343622     
  0.33244771366514880     
  0.31925248432780717     
  0.30747952983026711     
  0.29748612458348583     
  0.28940379400192773     
  0.28316875389547952     
  0.27858168176170206     
  0.27536568948398377     
  0.27317557749595983     
  0.27159213848197933     
  0.27039205574724456     
  0.27034387888637879     
  0.27312740986122935     
  0.27617232523275548     
  0.26279191374847621     
  0.21307799104494346     
  0.15368581822198876     
  0.12877384714588780     
  0.12520657372546187     
  0.12500627545527712     
  0.12500016328723351     
  0.45734949561890875     
  0.44939068237789542     
  0.44269548559599253     
  0.43719929025116838     
  0.43279236419223516     
  0.42931590491344035     
  0.42655712566338833     
  0.42424152557845640     
  0.42202398421998411     
  0.41948602627335652     
  0.41615094336963676     
  0.41152733259478685     
  0.40518284628146550     
  0.39683556103650064     
  0.38643713799921420     
  0.37421805155378307     
  0.36067446429001598     
  0.34649526605342479     
  0.33244771366513476     
  0.31925248432779540     
  0.30747952983025345     
  0.29748612458347645     
  0.28940379400191774     
  0.28316875389547314     
  0.27858168176169734     
  0.27536568948398044     
  0.27317557749595744     
  0.27159213848197750     
  0.27039205574724123     
  0.27034387888637462     
  0.27312740986122791     
  0.27617232523275542     
  0.26279191374847710     
  0.21307799104494096     
  0.15368581822198574     
  0.12877384714589177     
  0.12520657372546196     
  0.12500627545527768     
  0.12500016328723304     
  0.45734949561890526     
  0.44939068237788676     
  0.44269548559597816     
  0.43719929025114657     
  0.43279236419220957     
  0.42931590491341248     
  0.42655712566336457     
  0.42424152557843370     
  0.42202398421996762     
  0.41948602627334447     
  0.41615094336962527     
  0.41152733259477520     
  0.40518284628145312     
  0.39683556103649348     
  0.38643713799920815     
  0.37421805155378191     
  0.36067446429001127     
  0.34649526605342673     
  0.33244771366513887     
  0.31925248432779885     
  0.30747952983026033     
  0.29748612458348106     
  0.28940379400192351     
  0.28316875389547658     
  0.27858168176170089     
  0.27536568948398193     
  0.27317557749595722     
  0.27159213848197972     
  0.27039205574724295     
  0.27034387888637312     
  0.27312740986122708     
  0.27617232523276042     
  0.26279191374847821     
  0.21307799104494224     
  0.15368581822198504     
  0.12877384714588833     
  0.12520657372546157     
  0.12500627545527820     
  0.12500016328723249     
  0.45734949561891602     
  0.44939068237789653     
  0.44269548559599253     
  0.43719929025115944     
  0.43279236419222433     
  0.42931590491341892     
  0.42655712566336584     
  0.42424152557843836     
  0.42202398421996667     
  0.41948602627334119     
  0.41615094336961939     
  0.41152733259477331     
  0.40518284628145074     
  0.39683556103650308     
  0.38643713799921564     
  0.37421805155378940     
  0.36067446429001865     
  0.34649526605343317     
  0.33244771366514586     
  0.31925248432779973     
  0.30747952983026267     
  0.29748612458348495     
  0.28940379400192701     
  0.28316875389548279     
  0.27858168176170489     
  0.27536568948398560     
  0.27317557749595883     
  0.27159213848198144     
  0.27039205574724751     
  0.27034387888637629     
  0.27312740986122969     
  0.27617232523275920     
  0.26279191374847866     
  0.21307799104494460     
  0.15368581822198774     
  0.12877384714588477     
  0.12520657372546073     
  0.12500627545527718     
  0.12500016328723301     
  0.45734949561892441     
  0.44939068237790131     
  0.44269548559600186     
  0.43719929025115944     
  0.43279236419223166     
  0.42931590491341831     
  0.42655712566336201     
  0.42424152557844041     
  0.42202398421997284     
  0.41948602627335507     
  0.41615094336962799     
  0.41152733259478513     
  0.40518284628145884     
  0.39683556103650536     
  0.38643713799921642     
  0.37421805155378940     
  0.36067446429001954     
  0.34649526605343117     
  0.33244771366514403     
  0.31925248432779874     
  0.30747952983026300     
  0.29748612458348656     
  0.28940379400192889     
  0.28316875389548407     
  0.27858168176170600     
  0.27536568948398615     
  0.27317557749596288     
  0.27159213848198155     
  0.27039205574724756     
  0.27034387888637634     
  0.27312740986122963     
  0.27617232523275753     
  0.26279191374847993     
  0.21307799104494476     
  0.15368581822198585     
  0.12877384714588583     
  0.12520657372546101     
  0.12500627545527745     
  0.12500016328723307     
  0.45734949561892463     
  0.44939068237790630     
  0.44269548559601302     
  0.43719929025117676     
  0.43279236419225214     
  0.42931590491344057     
  0.42655712566338372     
  0.42424152557846290     
  0.42202398421998710     
  0.41948602627336440     
  0.41615094336963093     
  0.41152733259478524     
  0.40518284628146373     
  0.39683556103650164     
  0.38643713799921647     
  0.37421805155378762     
  0.36067446429001826     
  0.34649526605342934     
  0.33244771366514164     
  0.31925248432779862     
  0.30747952983026522     
  0.29748612458348733     
  0.28940379400192812     
  0.28316875389548257     
  0.27858168176170567     
  0.27536568948398488     
  0.27317557749596333     
  0.27159213848198088     
  0.27039205574724634     
  0.27034387888637623     
  0.27312740986122797     
  0.27617232523275742     
  0.26279191374847904     
  0.21307799104494268     
  0.15368581822198357     
  0.12877384714588536     
  0.12520657372546137     
  0.12500627545527848     
  0.12500016328723240     
  0.45734949561897525     
  0.44939068237794999     
  0.44269548559604649     
  0.43719929025121096     
  0.43279236419226980     
  0.42931590491345700     
  0.42655712566339682     
  0.42424152557846795     
  0.42202398421999232     
  0.41948602627336584     
  0.41615094336963426     
  0.41152733259478547     
  0.40518284628145884     
  0.39683556103649698     
  0.38643713799921214     
  0.37421805155378191     
  0.36067446429001010     
  0.34649526605342190     
  0.33244771366513387     
  0.31925248432779452     
  0.30747952983025972     
  0.29748612458348034     
  0.28940379400192601     
  0.28316875389548046     
  0.27858168176170334     
  0.27536568948398382     
  0.27317557749596427     
  0.27159213848198283     
  0.27039205574724884     
  0.27034387888637895     
  0.27312740986122808     
  0.27617232523275503     
  0.26279191374847838     
  0.21307799104494202     
  0.15368581822198366     
  0.12877384714588500     
  0.12520657372546182     
  0.12500627545527782     
  0.12500016328723307     
  0.45734949561889493     
  0.44939068237788216     
  0.44269548559597244     
  0.43719929025115112     
  0.43279236419221934     
  0.42931590491341431     
  0.42655712566336745     
  0.42424152557843786     
  0.42202398421996451     
  0.41948602627334036     
  0.41615094336961728     
  0.41152733259477092     
  0.40518284628144957     
  0.39683556103648909     
  0.38643713799920659     
  0.37421805155377968     
  0.36067446429000966     
  0.34649526605342162     
  0.33244771366513370     
  0.31925248432779552     
  0.30747952983025895     
  0.29748612458348134     
  0.28940379400192795     
  0.28316875389548313     
  0.27858168176170445     
  0.27536568948398554     
  0.27317557749596461     
  0.27159213848198288     
  0.27039205574724856     
  0.27034387888637706     
  0.27312740986123019     
  0.27617232523275609     
  0.26279191374847777     
  0.21307799104494210     
  0.15368581822198249     
  0.12877384714588522     
  0.12520657372546265     
  0.12500627545527770     
  0.12500016328723301     
 </DataArray>
 <DataArray type="Float64" Name="vol" format="ascii">
   3.5612535612819377E-004
   3.5612535612817523E-004
   3.5612535612816813E-004
   3.5612535612816130E-004
   3.5612535612813967E-004
   3.5612535612810709E-004
   3.5612535612808839E-004
   3.5612535612807570E-004
   3.5612535612806508E-004
   3.5612535612804751E-004
   3.5612535612803618E-004
   3.5612535612802041E-004
   3.5612535612800843E-004
   3.5612535612799048E-004
   3.5612535612798148E-004
   3.5612535612796262E-004
   3.5612535612795102E-004
   3.5612535612793812E-004
   3.5612535612792294E-004
   3.5612535612609649E-004
   3.5612535612427362E-004
   3.5612535612425801E-004
   3.5612535612424391E-004
   3.5612535612422993E-004
   3.5612535612421562E-004
   3.5612535612420445E-004
   3.5612535612418884E-004
   3.5612535612417322E-004
   3.5612535612416054E-004
   3.5612535612414959E-004
   3.5612535612413007E-004
   3.5612535612411739E-004
   3.5612535612410335E-004